3
Coordinates from ORCA-job input_HHH90 Relaxed Surface Scan Step 1 E  -1.396727863088
  H       0.000000      0.000000      0.000000
  H       0.600000     -0.000000      0.000000
  H      -0.000000      0.600000      0.000000
>
3
Coordinates from ORCA-job input_HHH90 Relaxed Surface Scan Step 2 E  -1.479502269892
  H       0.019507     -0.080238      0.000000
  H       0.617983     -0.037490      0.000000
  H      -0.037490      0.717729      0.000000
>
3
Coordinates from ORCA-job input_HHH90 Relaxed Surface Scan Step 3 E  -1.526343534423
  H       0.017485     -0.076553      0.000000
  H       0.616684     -0.045560      0.000000
  H      -0.034170      0.922112      0.000000
>
3
Coordinates from ORCA-job input_HHH90 Relaxed Surface Scan Step 4 E  -1.556629300926
  H       0.015521     -0.074058      0.000000
  H       0.615078     -0.050998      0.000000
  H      -0.030599      1.125056      0.000000
>
3
Coordinates from ORCA-job input_HHH90 Relaxed Surface Scan Step 5 E  -1.576563915759
  H       0.013806     -0.072345      0.000000
  H       0.613547     -0.054705      0.000000
  H      -0.027353      1.327050      0.000000
>
3
Coordinates from ORCA-job input_HHH90 Relaxed Surface Scan Step 6 E  -1.589409147496
  H       0.012358     -0.071139      0.000000
  H       0.612198     -0.057296      0.000000
  H      -0.024555      1.528435      0.000000
>
3
Coordinates from ORCA-job input_HHH90 Relaxed Surface Scan Step 7 E  -1.597389337309
  H       0.011143     -0.070267      0.000000
  H       0.611041     -0.059158      0.000000
  H      -0.022184      1.729425      0.000000
>
3
Coordinates from ORCA-job input_HHH90 Relaxed Surface Scan Step 8 E  -1.602159231906
  H       0.010123     -0.069620      0.000000
  H       0.610054     -0.060530      0.000000
  H      -0.020177      1.930150      0.000000
>
3
Coordinates from ORCA-job input_HHH90 Relaxed Surface Scan Step 9 E  -1.604915897797
  H       0.009259     -0.069129      0.000000
  H       0.609211     -0.061567      0.000000
  H      -0.018470      2.130696      0.000000
>
3
Coordinates from ORCA-job input_HHH90 Relaxed Surface Scan Step 10 E  -1.606467725232
  H       0.008521     -0.068749      0.000000
  H       0.608488     -0.062366      0.000000
  H      -0.017009      2.331115      0.000000
>
3
Coordinates from ORCA-job input_HHH90 Relaxed Surface Scan Step 11 E  -1.607323982196
  H       0.007887     -0.068449      0.000000
  H       0.607862     -0.062995      0.000000
  H      -0.015748      2.531444      0.000000
>
3
Coordinates from ORCA-job input_HHH90 Relaxed Surface Scan Step 12 E  -1.479502292670
  H      -0.123416      0.785963      0.000000
  H       0.613756      0.475194      0.000000
  H       0.109660      1.338842      0.000000
>
3
Coordinates from ORCA-job input_HHH90 Relaxed Surface Scan Step 13 E  -1.526970349330
  H       0.019677     -0.084988      0.000000
  H       0.817644     -0.027991      0.000000
  H      -0.037321      0.712979      0.000000
>
3
Coordinates from ORCA-job input_HHH90 Relaxed Surface Scan Step 14 E  -1.553042103214
  H       0.018901     -0.080945      0.000000
  H       0.817669     -0.036569      0.000000
  H      -0.036569      0.917515      0.000000
>
3
Coordinates from ORCA-job input_HHH90 Relaxed Surface Scan Step 15 E  -1.574950465419
  H       0.017627     -0.077872      0.000000
  H       0.816871     -0.043123      0.000000
  H      -0.034498      1.120995      0.000000
>
3
Coordinates from ORCA-job input_HHH90 Relaxed Surface Scan Step 16 E  -1.591686868991
  H       0.016241     -0.075579      0.000000
  H       0.815766     -0.048010      0.000000
  H      -0.032006      1.323589      0.000000
>
3
Coordinates from ORCA-job input_HHH90 Relaxed Surface Scan Step 17 E  -1.603318325711
  H       0.014912     -0.073866      0.000000
  H       0.814603     -0.051652      0.000000
  H      -0.029515      1.525517      0.000000
>
3
Coordinates from ORCA-job input_HHH90 Relaxed Surface Scan Step 18 E  -1.610879103296
  H       0.013702     -0.072571      0.000000
  H       0.813495     -0.054394      0.000000
  H      -0.027197      1.726964      0.000000
>
3
Coordinates from ORCA-job input_HHH90 Relaxed Surface Scan Step 19 E  -1.615556384922
  H       0.012624     -0.071579      0.000000
  H       0.812481     -0.056487      0.000000
  H      -0.025105      1.928065      0.000000
>
3
Coordinates from ORCA-job input_HHH90 Relaxed Surface Scan Step 20 E  -1.618344699570
  H       0.011672     -0.070807      0.000000
  H       0.811572     -0.058110      0.000000
  H      -0.023244      2.128916      0.000000
>
3
Coordinates from ORCA-job input_HHH90 Relaxed Surface Scan Step 21 E  -1.619961749916
  H       0.010834     -0.070197      0.000000
  H       0.810761     -0.059387      0.000000
  H      -0.021595      2.329584      0.000000
>
3
Coordinates from ORCA-job input_HHH90 Relaxed Surface Scan Step 22 E  -1.620880229974
  H       0.010095     -0.069709      0.000000
  H       0.810041     -0.060407      0.000000
  H      -0.020135      2.530116      0.000000
>
3
Coordinates from ORCA-job input_HHH90 Relaxed Surface Scan Step 23 E  -1.526343549258
  H      -0.119348      0.820798      0.000000
  H       0.792863      0.411077      0.000000
  H       0.126485      1.368125      0.000000
>
3
Coordinates from ORCA-job input_HHH90 Relaxed Surface Scan Step 24 E  -1.553042092205
  H       0.018735     -0.088531      0.000000
  H       1.016460     -0.021117      0.000000
  H      -0.035196      0.709649      0.000000
>
3
Coordinates from ORCA-job input_HHH90 Relaxed Surface Scan Step 25 E  -1.553209743847
  H       0.019003     -0.084643      0.000000
  H       1.017464     -0.029173      0.000000
  H      -0.036467      0.913817      0.000000
>
3
Coordinates from ORCA-job input_HHH90 Relaxed Surface Scan Step 26 E  -1.558607425787
  H       0.018507     -0.081390      0.000000
  H       1.017475     -0.035982      0.000000
  H      -0.035982      1.117372      0.000000
>
3
Coordinates from ORCA-job input_HHH90 Relaxed Surface Scan Step 27 E  -1.567692825992
  H       0.017633     -0.078771      0.000000
  H       1.016937     -0.041484      0.000000
  H      -0.034570      1.320255      0.000000
>
3
Coordinates from ORCA-job input_HHH90 Relaxed Surface Scan Step 28 E  -1.576167065251
  H       0.016612     -0.076696      0.000000
  H       1.016136     -0.045846      0.000000
  H      -0.032747      1.522542      0.000000
>
3
Coordinates from ORCA-job input_HHH90 Relaxed Surface Scan Step 29 E  -1.582494842206
  H       0.015569     -0.075056      0.000000
  H       1.015237     -0.049291      0.000000
  H      -0.030807      1.724347      0.000000
>
3
Coordinates from ORCA-job input_HHH90 Relaxed Surface Scan Step 30 E  -1.586720704688
  H       0.014568     -0.073754      0.000000
  H       1.014332     -0.052020      0.000000
  H      -0.028900      1.925774      0.000000
>
3
Coordinates from ORCA-job input_HHH90 Relaxed Surface Scan Step 31 E  -1.589370354263
  H       0.013635     -0.072713      0.000000
  H       1.013464     -0.054197      0.000000
  H      -0.027098      2.126910      0.000000
>
3
Coordinates from ORCA-job input_HHH90 Relaxed Surface Scan Step 32 E  -1.590967910905
  H       0.012779     -0.071872      0.000000
  H       1.012653     -0.055951      0.000000
  H      -0.025432      2.327823      0.000000
>
3
Coordinates from ORCA-job input_HHH90 Relaxed Surface Scan Step 33 E  -1.591905639048
  H       0.012001     -0.071188      0.000000
  H       1.011906     -0.057377      0.000000
  H      -0.023907      2.528564      0.000000
>
3
Coordinates from ORCA-job input_HHH90 Relaxed Surface Scan Step 34 E  -1.556629323845
  H      -0.113600      0.850846      0.000000
  H       0.978025      0.352495      0.000000
  H       0.135575      1.396659      0.000000
>
3
Coordinates from ORCA-job input_HHH90 Relaxed Surface Scan Step 35 E  -1.574950465791
  H       0.017413     -0.091099      0.000000
  H       1.215076     -0.016245      0.000000
  H      -0.032489      0.707343      0.000000
>
3
Coordinates from ORCA-job input_HHH90 Relaxed Surface Scan Step 36 E  -1.558607424612
  H       0.018404     -0.087587      0.000000
  H       1.216686     -0.023394      0.000000
  H      -0.035090      0.910981      0.000000
>
3
Coordinates from ORCA-job input_HHH90 Relaxed Surface Scan Step 37 E  -1.546323246949
  H       0.018576     -0.084417      0.000000
  H       1.217338     -0.029928      0.000000
  H      -0.035913      1.114345      0.000000
>
3
Coordinates from ORCA-job input_HHH90 Relaxed Surface Scan Step 38 E  -1.543401780639
  H       0.018231     -0.081695      0.000000
  H       1.217344     -0.035575      0.000000
  H      -0.035575      1.317270      0.000000
>
3
Coordinates from ORCA-job input_HHH90 Relaxed Surface Scan Step 39 E  -1.544792960820
  H       0.017595     -0.079420      0.000000
  H       1.216957     -0.040310      0.000000
  H      -0.034551      1.519730      0.000000
>
3
Coordinates from ORCA-job input_HHH90 Relaxed Surface Scan Step 40 E  -1.547239148321
  H       0.016814     -0.077542      0.000000
  H       1.216352     -0.044222      0.000000
  H      -0.033166      1.721764      0.000000
>
3
Coordinates from ORCA-job input_HHH90 Relaxed Surface Scan Step 41 E  -1.549468983489
  H       0.015982     -0.075999      0.000000
  H       1.215642     -0.047436      0.000000
  H      -0.031623      1.923434      0.000000
>
3
Coordinates from ORCA-job input_HHH90 Relaxed Surface Scan Step 42 E  -1.551149953591
  H       0.015150     -0.074729      0.000000
  H       1.214896     -0.050077      0.000000
  H      -0.030046      2.124806      0.000000
>
3
Coordinates from ORCA-job input_HHH90 Relaxed Surface Scan Step 43 E  -1.552301739801
  H       0.014347     -0.073681      0.000000
  H       1.214156     -0.052256      0.000000
  H      -0.028503      2.325937      0.000000
>
3
Coordinates from ORCA-job input_HHH90 Relaxed Surface Scan Step 44 E  -1.553043794695
  H       0.013589     -0.072810      0.000000
  H       1.213442     -0.054062      0.000000
  H      -0.027031      2.526873      0.000000
>
3
Coordinates from ORCA-job input_HHH90 Relaxed Surface Scan Step 45 E  -1.576563935857
  H      -0.107631      0.876046      0.000000
  H       1.168764      0.300881      0.000000
  H       0.138868      1.423073      0.000000
>
3
Coordinates from ORCA-job input_HHH90 Relaxed Surface Scan Step 46 E  -1.591686868920
  H       0.016042     -0.092961      0.000000
  H       1.413743     -0.012765      0.000000
  H      -0.029785      0.705726      0.000000
>
3
Coordinates from ORCA-job input_HHH90 Relaxed Surface Scan Step 47 E  -1.567692825896
  H       0.017486     -0.089880      0.000000
  H       1.415688     -0.018956      0.000000
  H      -0.033174      0.908836      0.000000
>
3
Coordinates from ORCA-job input_HHH90 Relaxed Surface Scan Step 48 E  -1.543401780512
  H       0.018161     -0.086930      0.000000
  H       1.416789     -0.024965      0.000000
  H      -0.034951      1.111894      0.000000
>
3
Coordinates from ORCA-job input_HHH90 Relaxed Surface Scan Step 49 E  -1.530980168646
  H       0.018280     -0.084257      0.000000
  H       1.417246     -0.030451      0.000000
  H      -0.035526      1.314708      0.000000
>
3
Coordinates from ORCA-job input_HHH90 Relaxed Surface Scan Step 50 E  -1.526154048143
  H       0.018027     -0.081918      0.000000
  H       1.417250     -0.035277      0.000000
  H      -0.035277      1.517194      0.000000
>
3
Coordinates from ORCA-job input_HHH90 Relaxed Surface Scan Step 51 E  -1.524674058896
  H       0.017543     -0.079909      0.000000
  H       1.416958     -0.039430      0.000000
  H      -0.034501      1.719339      0.000000
>
3
Coordinates from ORCA-job input_HHH90 Relaxed Surface Scan Step 52 E  -1.524472168244
  H       0.016929     -0.078202      0.000000
  H       1.416485     -0.042962      0.000000
  H      -0.033415      1.921164      0.000000
>
3
Coordinates from ORCA-job input_HHH90 Relaxed Surface Scan Step 53 E  -1.524677713263
  H       0.016252     -0.076759      0.000000
  H       1.415913     -0.045949      0.000000
  H      -0.032164      2.122708      0.000000
>
3
Coordinates from ORCA-job input_HHH90 Relaxed Surface Scan Step 54 E  -1.524954453395
  H       0.015554     -0.075539      0.000000
  H       1.415292     -0.048473      0.000000
  H      -0.030846      2.324012      0.000000
>
3
Coordinates from ORCA-job input_HHH90 Relaxed Surface Scan Step 55 E  -1.525189086925
  H       0.014863     -0.074507      0.000000
  H       1.414659     -0.050608      0.000000
  H      -0.029521      2.525114      0.000000
>
3
Coordinates from ORCA-job input_HHH90 Relaxed Surface Scan Step 56 E  -1.589409161166
  H      -0.102131      0.896891      0.000000
  H       1.364075      0.256391      0.000000
  H       0.138057      1.446718      0.000000
>
3
Coordinates from ORCA-job input_HHH90 Relaxed Surface Scan Step 57 E  -1.603318325585
  H       0.014753     -0.094329      0.000000
  H       1.612541     -0.010235      0.000000
  H      -0.027294      0.704565      0.000000
>
3
Coordinates from ORCA-job input_HHH90 Relaxed Surface Scan Step 58 E  -1.576167065139
  H       0.016459     -0.091657      0.000000
  H       1.614648     -0.015553      0.000000
  H      -0.031106      0.907211      0.000000
>
3
Coordinates from ORCA-job input_HHH90 Relaxed Surface Scan Step 59 E  -1.544792960771
  H       0.017488     -0.088980      0.000000
  H       1.616041     -0.020956      0.000000
  H      -0.033529      1.109935      0.000000
>
3
Coordinates from ORCA-job input_HHH90 Relaxed Surface Scan Step 60 E  -1.526154048204
  H       0.017977     -0.086446      0.000000
  H       1.616839     -0.026112      0.000000
  H      -0.034816      1.312558      0.000000
>
3
Coordinates from ORCA-job input_HHH90 Relaxed Surface Scan Step 61 E  -1.517354126870
  H       0.018064     -0.084139      0.000000
  H       1.617176     -0.030835      0.000000
  H      -0.035240      1.514973      0.000000
>
3
Coordinates from ORCA-job input_HHH90 Relaxed Surface Scan Step 62 E  -1.513428443122
  H       0.017870     -0.082087      0.000000
  H       1.617178     -0.035048      0.000000
  H      -0.035048      1.717135      0.000000
>
3
Coordinates from ORCA-job input_HHH90 Relaxed Surface Scan Step 63 E  -1.511756767148
  H       0.017490     -0.080290      0.000000
  H       1.616951     -0.038746      0.000000
  H      -0.034441      1.919036      0.000000
>
3
Coordinates from ORCA-job input_HHH90 Relaxed Surface Scan Step 64 E  -1.511097650486
  H       0.016469     -0.078366      0.000000
  H       1.616072     -0.042722      0.000000
  H      -0.032541      2.121088      0.000000
>
3
Coordinates from ORCA-job input_HHH90 Relaxed Surface Scan Step 65 E  -1.510874955283
  H       0.015934     -0.077063      0.000000
  H       1.615621     -0.045404      0.000000
  H      -0.031555      2.322467      0.000000
>
3
Coordinates from ORCA-job input_HHH90 Relaxed Surface Scan Step 66 E  -1.510825204133
  H       0.015372     -0.075940      0.000000
  H       1.615123     -0.047714      0.000000
  H      -0.030495      2.523655      0.000000
>
3
Coordinates from ORCA-job input_HHH90 Relaxed Surface Scan Step 67 E  -1.597389349014
  H      -0.097346      0.914030      0.000000
  H       1.562862      0.218537      0.000000
  H       0.134485      1.467433      0.000000
>
3
Coordinates from ORCA-job input_HHH90 Relaxed Surface Scan Step 68 E  -1.610879103197
  H       0.013589     -0.095353      0.000000
  H       1.811486     -0.008358      0.000000
  H      -0.025075      0.703712      0.000000
>
3
Coordinates from ORCA-job input_HHH90 Relaxed Surface Scan Step 69 E  -1.582494842093
  H       0.015431     -0.093042      0.000000
  H       1.813647     -0.012924      0.000000
  H      -0.029079      0.905966      0.000000
>
3
Coordinates from ORCA-job input_HHH90 Relaxed Surface Scan Step 70 E  -1.547239148253
  H       0.016695     -0.090643      0.000000
  H       1.815218     -0.017730      0.000000
  H      -0.031913      1.108372      0.000000
>
3
Coordinates from ORCA-job input_HHH90 Relaxed Surface Scan Step 71 E  -1.524674058059
  H       0.017463     -0.088291      0.000000
  H       1.816259     -0.022482      0.000000
  H      -0.033722      1.310773      0.000000
>
3
Coordinates from ORCA-job input_HHH90 Relaxed Surface Scan Step 72 E  -1.513428442242
  H       0.017832     -0.086077      0.000000
  H       1.816862     -0.026984      0.000000
  H      -0.034694      1.513061      0.000000
>
3
Coordinates from ORCA-job input_HHH90 Relaxed Surface Scan Step 73 E  -1.507993689878
  H       0.017899     -0.084047      0.000000
  H       1.817121     -0.031129      0.000000
  H      -0.035019      1.715175      0.000000
>
3
Coordinates from ORCA-job input_HHH90 Relaxed Surface Scan Step 74 E  -1.505405030377
  H       0.017745     -0.082220      0.000000
  H       1.817122     -0.034868      0.000000
  H      -0.034868      1.917088      0.000000
>
3
Coordinates from ORCA-job input_HHH90 Relaxed Surface Scan Step 75 E  -1.504198237025
  H       0.017439     -0.080595      0.000000
  H       1.816940     -0.038199      0.000000
  H      -0.034379      2.118794      0.000000
>
3
Coordinates from ORCA-job input_HHH90 Relaxed Surface Scan Step 76 E  -1.503653443408
  H       0.016076     -0.078475      0.000000
  H       1.815718     -0.042572      0.000000
  H      -0.031794      2.321047      0.000000
>
3
Coordinates from ORCA-job input_HHH90 Relaxed Surface Scan Step 77 E  -1.503416610645
  H       0.015643     -0.077290      0.000000
  H       1.815353     -0.045002      0.000000
  H      -0.030995      2.522292      0.000000
>
3
Coordinates from ORCA-job input_HHH90 Relaxed Surface Scan Step 78 E  -1.602159242698
  H      -0.093304      0.928102      0.000000
  H       1.764146      0.186562      0.000000
  H       0.129158      1.485337      0.000000
>
3
Coordinates from ORCA-job input_HHH90 Relaxed Surface Scan Step 79 E  -1.615556384883
  H       0.012556     -0.096134      0.000000
  H       2.010566     -0.006937      0.000000
  H      -0.023122      0.703070      0.000000
>
3
Coordinates from ORCA-job input_HHH90 Relaxed Surface Scan Step 80 E  -1.586720704850
  H       0.014455     -0.094131      0.000000
  H       2.012721     -0.010870      0.000000
  H      -0.027176      0.905002      0.000000
>
3
Coordinates from ORCA-job input_HHH90 Relaxed Surface Scan Step 81 E  -1.549468983516
  H       0.015866     -0.091993      0.000000
  H       2.014388     -0.015127      0.000000
  H      -0.030254      1.107120      0.000000
>
3
Coordinates from ORCA-job input_HHH90 Relaxed Surface Scan Step 82 E  -1.524472168223
  H       0.016835     -0.089837      0.000000
  H       2.015596     -0.019458      0.000000
  H      -0.032430      1.309296      0.000000
>
3
Coordinates from ORCA-job input_HHH90 Relaxed Surface Scan Step 83 E  -1.511756766756
  H       0.017427     -0.087749      0.000000
  H       2.016401     -0.023680      0.000000
  H      -0.033828      1.511429      0.000000
>
3
Coordinates from ORCA-job input_HHH90 Relaxed Surface Scan Step 84 E  -1.505405029926
  H       0.017229     -0.085274      0.000000
  H       2.016430     -0.028732      0.000000
  H      -0.033659      1.714006      0.000000
>
3
Coordinates from ORCA-job input_HHH90 Relaxed Surface Scan Step 85 E  -1.502247962373
  H       0.017769     -0.083974      0.000000
  H       2.017076     -0.031360      0.000000
  H      -0.034845      1.915334      0.000000
>
3
Coordinates from ORCA-job input_HHH90 Relaxed Surface Scan Step 86 E  -1.500693865232
  H       0.017644     -0.082327      0.000000
  H       2.017078     -0.034722      0.000000
  H      -0.034722      2.117049      0.000000
>
3
Coordinates from ORCA-job input_HHH90 Relaxed Surface Scan Step 87 E  -1.499939952142
  H       0.017392     -0.080845      0.000000
  H       2.016928     -0.037752      0.000000
  H      -0.034320      2.318597      0.000000
>
3
Coordinates from ORCA-job input_HHH90 Relaxed Surface Scan Step 88 E  -1.499578884750
  H       0.017051     -0.079520      0.000000
  H       2.016670     -0.040465      0.000000
  H      -0.033721      2.519984      0.000000
>
3
Coordinates from ORCA-job input_HHH90 Relaxed Surface Scan Step 89 E  -1.604915905996
  H      -0.089936      0.939670      0.000000
  H       1.967137      0.159639      0.000000
  H       0.122799      1.500690      0.000000
>
3
Coordinates from ORCA-job input_HHH90 Relaxed Surface Scan Step 90 E  -1.618344699535
  H       0.011644     -0.096739      0.000000
  H       2.209766     -0.005839      0.000000
  H      -0.021410      0.702578      0.000000
>
3
Coordinates from ORCA-job input_HHH90 Relaxed Surface Scan Step 91 E  -1.589370354536
  H       0.013550     -0.094997      0.000000
  H       2.211878     -0.009246      0.000000
  H      -0.025428      0.904243      0.000000
>
3
Coordinates from ORCA-job input_HHH90 Relaxed Surface Scan Step 92 E  -1.551149953607
  H       0.015046     -0.093095      0.000000
  H       2.213588     -0.013015      0.000000
  H      -0.028634      1.106110      0.000000
>
3
Coordinates from ORCA-job input_HHH90 Relaxed Surface Scan Step 93 E  -1.524677713269
  H       0.016155     -0.091132      0.000000
  H       2.214903     -0.016941      0.000000
  H      -0.031058      1.308072      0.000000
>
3
Coordinates from ORCA-job input_HHH90 Relaxed Surface Scan Step 94 E  -1.511097650488
  H       0.016918     -0.089186      0.000000
  H       2.215857     -0.020857      0.000000
  H      -0.032775      1.510043      0.000000
>
3
Coordinates from ORCA-job input_HHH90 Relaxed Surface Scan Step 95 E  -1.504198236864
  H       0.016947     -0.086803      0.000000
  H       2.216099     -0.025700      0.000000
  H      -0.033046      1.712503      0.000000
>
3
Coordinates from ORCA-job input_HHH90 Relaxed Surface Scan Step 96 E  -1.500693865066
  H       0.016747     -0.084636      0.000000
  H       2.216071     -0.030115      0.000000
  H      -0.032817      1.914750      0.000000
>
3
Coordinates from ORCA-job input_HHH90 Relaxed Surface Scan Step 97 E  -1.498922246740
  H       0.017663     -0.083914      0.000000
  H       2.217040     -0.031548      0.000000
  H      -0.034703      2.115462      0.000000
>
3
Coordinates from ORCA-job input_HHH90 Relaxed Surface Scan Step 98 E  -1.498034153812
  H       0.017560     -0.082416      0.000000
  H       2.217041     -0.034601      0.000000
  H      -0.034601      2.317017      0.000000
>
3
Coordinates from ORCA-job input_HHH90 Relaxed Surface Scan Step 99 E  -1.497591641159
  H       0.017349     -0.081054      0.000000
  H       2.216916     -0.037380      0.000000
  H      -0.034265      2.518434      0.000000
>
3
Coordinates from ORCA-job input_HHH90 Relaxed Surface Scan Step 100 E  -1.606467729108
  H      -0.087146      0.949210      0.000000
  H       2.171236      0.136985      0.000000
  H       0.115910      1.513805      0.000000
>
3
Coordinates from ORCA-job input_HHH90 Relaxed Surface Scan Step 101 E  -1.619961749918
  H       0.010840     -0.097216      0.000000
  H       2.409067     -0.004977      0.000000
  H      -0.019907      0.702193      0.000000
>
3
Coordinates from ORCA-job input_HHH90 Relaxed Surface Scan Step 102 E  -1.590967910887
  H       0.012722     -0.095693      0.000000
  H       2.411117     -0.007946      0.000000
  H      -0.023839      0.903639      0.000000
>
3
Coordinates from ORCA-job input_HHH90 Relaxed Surface Scan Step 103 E  -1.552301739481
  H       0.014260     -0.093999      0.000000
  H       2.412834     -0.011289      0.000000
  H      -0.027094      1.105288      0.000000
>
3
Coordinates from ORCA-job input_HHH90 Relaxed Surface Scan Step 104 E  -1.524954453379
  H       0.015462     -0.092217      0.000000
  H       2.414214     -0.014838      0.000000
  H      -0.029676      1.307055      0.000000
>
3
Coordinates from ORCA-job input_HHH90 Relaxed Surface Scan Step 105 E  -1.510874955290
  H       0.015997     -0.089916      0.000000
  H       2.414963     -0.019480      0.000000
  H      -0.030960      1.509395      0.000000
>
3
Coordinates from ORCA-job input_HHH90 Relaxed Surface Scan Step 106 E  -1.503653443401
  H       0.016572     -0.088150      0.000000
  H       2.415689     -0.023038      0.000000
  H      -0.032261      1.711188      0.000000
>
3
Coordinates from ORCA-job input_HHH90 Relaxed Surface Scan Step 107 E  -1.499939952085
  H       0.016553     -0.086044      0.000000
  H       2.415835     -0.027314      0.000000
  H      -0.032388      1.913357      0.000000
>
3
Coordinates from ORCA-job input_HHH90 Relaxed Surface Scan Step 108 E  -1.498034153807
  H       0.017541     -0.085354      0.000000
  H       2.416872     -0.028678      0.000000
  H      -0.034413      2.114032      0.000000
>
3
Coordinates from ORCA-job input_HHH90 Relaxed Surface Scan Step 109 E  -1.497061433140
  H       0.017576     -0.083865      0.000000
  H       2.417009     -0.031703      0.000000
  H      -0.034585      2.315568      0.000000
>
3
Coordinates from ORCA-job input_HHH90 Relaxed Surface Scan Step 110 E  -1.496566609774
  H       0.017490     -0.082490      0.000000
  H       2.417010     -0.034500      0.000000
  H      -0.034500      2.516990      0.000000
>
3
Coordinates from ORCA-job input_HHH90 Relaxed Surface Scan Step 111 E  -1.607323985055
  H      -0.084834      0.957108      0.000000
  H       2.376005      0.117899      0.000000
  H       0.108829      1.524994      0.000000
>
3
Coordinates from ORCA-job input_HHH90 Relaxed Surface Scan Step 112 E  -1.620880229897
  H       0.010129     -0.097598      0.000000
  H       2.608454     -0.004288      0.000000
  H      -0.018582      0.701886      0.000000
>
3
Coordinates from ORCA-job input_HHH90 Relaxed Surface Scan Step 113 E  -1.591905639114
  H       0.011969     -0.096258      0.000000
  H       2.610433     -0.006893      0.000000
  H      -0.022402      0.903151      0.000000
>
3
Coordinates from ORCA-job input_HHH90 Relaxed Surface Scan Step 114 E  -1.553043794694
  H       0.013520     -0.094747      0.000000
  H       2.612134     -0.009867      0.000000
  H      -0.025655      1.104614      0.000000
>
3
Coordinates from ORCA-job input_HHH90 Relaxed Surface Scan Step 115 E  -1.525189086868
  H       0.014780     -0.093131      0.000000
  H       2.613547     -0.013074      0.000000
  H      -0.028327      1.306205      0.000000
>
3
Coordinates from ORCA-job input_HHH90 Relaxed Surface Scan Step 116 E  -1.510825204190
  H       0.015451     -0.090996      0.000000
  H       2.614408     -0.017367      0.000000
  H      -0.029859      1.508363      0.000000
>
3
Coordinates from ORCA-job input_HHH90 Relaxed Surface Scan Step 117 E  -1.503416610651
  H       0.015832     -0.088914      0.000000
  H       2.614960     -0.021567      0.000000
  H      -0.030792      1.710482      0.000000
>
3
Coordinates from ORCA-job input_HHH90 Relaxed Surface Scan Step 118 E  -1.499578884799
  H       0.016277     -0.087308      0.000000
  H       2.615525     -0.024806      0.000000
  H      -0.031802      1.912114      0.000000
>
3
Coordinates from ORCA-job input_HHH90 Relaxed Surface Scan Step 119 E  -1.497591641165
  H       0.016548     -0.085787      0.000000
  H       2.615903     -0.027880      0.000000
  H      -0.032450      2.113667      0.000000
>
3
Coordinates from ORCA-job input_HHH90 Relaxed Surface Scan Step 120 E  -1.496566609787
  H       0.017474     -0.085191      0.000000
  H       2.616868     -0.029058      0.000000
  H      -0.034341      2.314249      0.000000
>
3
Coordinates from ORCA-job input_HHH90 Relaxed Surface Scan Step 121 E  -1.496039013784
  H       0.017503     -0.083823      0.000000
  H       2.616983     -0.031834      0.000000
  H      -0.034486      2.515657      0.000000
