3
Coordinates from ORCA-job scanHHH180_enhanced_0.1 Relaxed Surface Scan Step 1 E  -1.594271963049
  H       0.000000     -0.000000      0.000000
  H       0.875000      0.000000     -0.000000
  H      -0.875000      0.000000     -0.000000
>
3
Coordinates from ORCA-job scanHHH180_enhanced_0.1 Relaxed Surface Scan Step 2 E  -1.594691046390
  H       0.003704      0.000000     -0.000000
  H       0.878704     -0.000000      0.000000
  H      -0.882407     -0.000000      0.000000
>
3
Coordinates from ORCA-job scanHHH180_enhanced_0.1 Relaxed Surface Scan Step 3 E  -1.595072658509
  H       0.003704      0.000000     -0.000000
  H       0.878704     -0.000000      0.000000
  H      -0.893518      0.000000      0.000000
>
3
Coordinates from ORCA-job scanHHH180_enhanced_0.1 Relaxed Surface Scan Step 4 E  -1.595421134009
  H       0.003704      0.000000     -0.000000
  H       0.878704     -0.000000      0.000000
  H      -0.904630      0.000000      0.000000
>
3
Coordinates from ORCA-job scanHHH180_enhanced_0.1 Relaxed Surface Scan Step 5 E  -1.595740442750
  H       0.003704      0.000000      0.000000
  H       0.878704     -0.000000     -0.000000
  H      -0.915741      0.000000     -0.000000
>
3
Coordinates from ORCA-job scanHHH180_enhanced_0.1 Relaxed Surface Scan Step 6 E  -1.596034208779
  H       0.003704      0.000000     -0.000000
  H       0.878704     -0.000000      0.000000
  H      -0.926852     -0.000000      0.000000
>
3
Coordinates from ORCA-job scanHHH180_enhanced_0.1 Relaxed Surface Scan Step 7 E  -1.596305732565
  H       0.003704      0.000000      0.000000
  H       0.878704     -0.000000     -0.000000
  H      -0.937963      0.000000     -0.000000
>
3
Coordinates from ORCA-job scanHHH180_enhanced_0.1 Relaxed Surface Scan Step 8 E  -1.596558010957
  H       0.003704      0.000000     -0.000000
  H       0.878704     -0.000000      0.000000
  H      -0.949074     -0.000000      0.000000
>
3
Coordinates from ORCA-job scanHHH180_enhanced_0.1 Relaxed Surface Scan Step 9 E  -1.596793757567
  H       0.003704      0.000000     -0.000000
  H       0.878704     -0.000000      0.000000
  H      -0.960185      0.000000      0.000000
>
3
Coordinates from ORCA-job scanHHH180_enhanced_0.1 Relaxed Surface Scan Step 10 E  -1.597015422167
  H       0.003704      0.000000      0.000000
  H       0.878704     -0.000000     -0.000000
  H      -0.971296      0.000000     -0.000000
>
3
Coordinates from ORCA-job scanHHH180_enhanced_0.1 Relaxed Surface Scan Step 11 E  -1.594691052692
  H      -0.037037      0.000000     -0.000000
  H       0.849074     -0.000000      0.000000
  H      -0.912037      0.000000      0.000000
>
3
Coordinates from ORCA-job scanHHH180_enhanced_0.1 Relaxed Surface Scan Step 12 E  -1.595056154857
  H       0.003704      0.000000     -0.000000
  H       0.889815     -0.000000      0.000000
  H      -0.882407     -0.000000      0.000000
>
3
Coordinates from ORCA-job scanHHH180_enhanced_0.1 Relaxed Surface Scan Step 13 E  -1.595384179258
  H       0.003704     -0.000000      0.000000
  H       0.889815      0.000000     -0.000000
  H      -0.893518      0.000000     -0.000000
>
3
Coordinates from ORCA-job scanHHH180_enhanced_0.1 Relaxed Surface Scan Step 14 E  -1.595679519667
  H       0.003704      0.000000      0.000000
  H       0.889815     -0.000000     -0.000000
  H      -0.904630     -0.000000     -0.000000
>
3
Coordinates from ORCA-job scanHHH180_enhanced_0.1 Relaxed Surface Scan Step 15 E  -1.595946205930
  H       0.003704      0.000000     -0.000000
  H       0.889815     -0.000000      0.000000
  H      -0.915741     -0.000000      0.000000
>
3
Coordinates from ORCA-job scanHHH180_enhanced_0.1 Relaxed Surface Scan Step 16 E  -1.596187919670
  H       0.003704      0.000000     -0.000000
  H       0.889815     -0.000000      0.000000
  H      -0.926852     -0.000000      0.000000
>
3
Coordinates from ORCA-job scanHHH180_enhanced_0.1 Relaxed Surface Scan Step 17 E  -1.596408016099
  H       0.003704      0.000000     -0.000000
  H       0.889815     -0.000000      0.000000
  H      -0.937963     -0.000000      0.000000
>
3
Coordinates from ORCA-job scanHHH180_enhanced_0.1 Relaxed Surface Scan Step 18 E  -1.596609543846
  H       0.003704      0.000000     -0.000000
  H       0.889815     -0.000000      0.000000
  H      -0.949074     -0.000000      0.000000
>
3
Coordinates from ORCA-job scanHHH180_enhanced_0.1 Relaxed Surface Scan Step 19 E  -1.596795265040
  H       0.003704      0.000000     -0.000000
  H       0.889815     -0.000000      0.000000
  H      -0.960185     -0.000000      0.000000
>
3
Coordinates from ORCA-job scanHHH180_enhanced_0.1 Relaxed Surface Scan Step 20 E  -1.596967674447
  H       0.003704      0.000000      0.000000
  H       0.889815     -0.000000     -0.000000
  H      -0.971296      0.000000     -0.000000
>
3
Coordinates from ORCA-job scanHHH180_enhanced_0.1 Relaxed Surface Scan Step 21 E  -1.595072664096
  H      -0.037037      0.000000     -0.000000
  H       0.860185     -0.000000      0.000000
  H      -0.912037      0.000000      0.000000
>
3
Coordinates from ORCA-job scanHHH180_enhanced_0.1 Relaxed Surface Scan Step 22 E  -1.595384179258
  H       0.003704      0.000000     -0.000000
  H       0.900926     -0.000000      0.000000
  H      -0.882407     -0.000000      0.000000
>
3
Coordinates from ORCA-job scanHHH180_enhanced_0.1 Relaxed Surface Scan Step 23 E  -1.595658946370
  H       0.003704     -0.000000      0.000000
  H       0.900926      0.000000     -0.000000
  H      -0.893518      0.000000     -0.000000
>
3
Coordinates from ORCA-job scanHHH180_enhanced_0.1 Relaxed Surface Scan Step 24 E  -1.595901422672
  H       0.003704     -0.000000      0.000000
  H       0.900926      0.000000     -0.000000
  H      -0.904630      0.000000     -0.000000
>
3
Coordinates from ORCA-job scanHHH180_enhanced_0.1 Relaxed Surface Scan Step 25 E  -1.596115698975
  H       0.003704      0.000000      0.000000
  H       0.900926     -0.000000     -0.000000
  H      -0.915741      0.000000     -0.000000
>
3
Coordinates from ORCA-job scanHHH180_enhanced_0.1 Relaxed Surface Scan Step 26 E  -1.596305515731
  H       0.003704      0.000000     -0.000000
  H       0.900926     -0.000000      0.000000
  H      -0.926852      0.000000      0.000000
>
3
Coordinates from ORCA-job scanHHH180_enhanced_0.1 Relaxed Surface Scan Step 27 E  -1.596474284405
  H       0.003704      0.000000     -0.000000
  H       0.900926     -0.000000      0.000000
  H      -0.937963      0.000000      0.000000
>
3
Coordinates from ORCA-job scanHHH180_enhanced_0.1 Relaxed Surface Scan Step 28 E  -1.596625107136
  H       0.003704      0.000000     -0.000000
  H       0.900926     -0.000000      0.000000
  H      -0.949074     -0.000000      0.000000
>
3
Coordinates from ORCA-job scanHHH180_enhanced_0.1 Relaxed Surface Scan Step 29 E  -1.596760796488
  H       0.003704      0.000000     -0.000000
  H       0.900926     -0.000000      0.000000
  H      -0.960185     -0.000000      0.000000
>
3
Coordinates from ORCA-job scanHHH180_enhanced_0.1 Relaxed Surface Scan Step 30 E  -1.596883894306
  H       0.003704      0.000000     -0.000000
  H       0.900926     -0.000000      0.000000
  H      -0.971296     -0.000000      0.000000
>
3
Coordinates from ORCA-job scanHHH180_enhanced_0.1 Relaxed Surface Scan Step 31 E  -1.595421138919
  H      -0.037037     -0.000000      0.000000
  H       0.871296      0.000000     -0.000000
  H      -0.912037      0.000000     -0.000000
>
3
Coordinates from ORCA-job scanHHH180_enhanced_0.1 Relaxed Surface Scan Step 32 E  -1.595679519667
  H       0.003704      0.000000     -0.000000
  H       0.912037     -0.000000      0.000000
  H      -0.882407     -0.000000      0.000000
>
3
Coordinates from ORCA-job scanHHH180_enhanced_0.1 Relaxed Surface Scan Step 33 E  -1.595901422672
  H       0.003704      0.000000     -0.000000
  H       0.912037     -0.000000      0.000000
  H      -0.893518     -0.000000      0.000000
>
3
Coordinates from ORCA-job scanHHH180_enhanced_0.1 Relaxed Surface Scan Step 34 E  -1.596091369003
  H       0.003704      0.000000     -0.000000
  H       0.912037     -0.000000      0.000000
  H      -0.904630      0.000000      0.000000
>
3
Coordinates from ORCA-job scanHHH180_enhanced_0.1 Relaxed Surface Scan Step 35 E  -1.596253511141
  H       0.003704      0.000000      0.000000
  H       0.912037     -0.000000     -0.000000
  H      -0.915741      0.000000     -0.000000
>
3
Coordinates from ORCA-job scanHHH180_enhanced_0.1 Relaxed Surface Scan Step 36 E  -1.596391649371
  H       0.003704     -0.000000      0.000000
  H       0.912037      0.000000     -0.000000
  H      -0.926852      0.000000     -0.000000
>
3
Coordinates from ORCA-job scanHHH180_enhanced_0.1 Relaxed Surface Scan Step 37 E  -1.596509252672
  H       0.003704     -0.000000      0.000000
  H       0.912037      0.000000     -0.000000
  H      -0.937963      0.000000     -0.000000
>
3
Coordinates from ORCA-job scanHHH180_enhanced_0.1 Relaxed Surface Scan Step 38 E  -1.596609478194
  H       0.003704      0.000000     -0.000000
  H       0.912037     -0.000000      0.000000
  H      -0.949074      0.000000      0.000000
>
3
Coordinates from ORCA-job scanHHH180_enhanced_0.1 Relaxed Surface Scan Step 39 E  -1.596695190642
  H       0.003704      0.000000     -0.000000
  H       0.912037     -0.000000      0.000000
  H      -0.960185     -0.000000      0.000000
>
3
Coordinates from ORCA-job scanHHH180_enhanced_0.1 Relaxed Surface Scan Step 40 E  -1.596768980820
  H       0.003704      0.000000     -0.000000
  H       0.912037     -0.000000      0.000000
  H      -0.971296     -0.000000      0.000000
>
3
Coordinates from ORCA-job scanHHH180_enhanced_0.1 Relaxed Surface Scan Step 41 E  -1.595740447017
  H      -0.037037      0.000000      0.000000
  H       0.882407     -0.000000     -0.000000
  H      -0.912037      0.000000     -0.000000
>
3
Coordinates from ORCA-job scanHHH180_enhanced_0.1 Relaxed Surface Scan Step 42 E  -1.595946205930
  H       0.003704      0.000000      0.000000
  H       0.923148     -0.000000     -0.000000
  H      -0.882407      0.000000     -0.000000
>
3
Coordinates from ORCA-job scanHHH180_enhanced_0.1 Relaxed Surface Scan Step 43 E  -1.596115698975
  H       0.003704      0.000000     -0.000000
  H       0.923148     -0.000000      0.000000
  H      -0.893518     -0.000000      0.000000
>
3
Coordinates from ORCA-job scanHHH180_enhanced_0.1 Relaxed Surface Scan Step 44 E  -1.596253511141
  H       0.003704     -0.000000      0.000000
  H       0.923148      0.000000     -0.000000
  H      -0.904630      0.000000     -0.000000
>
3
Coordinates from ORCA-job scanHHH180_enhanced_0.1 Relaxed Surface Scan Step 45 E  -1.596363857033
  H       0.003704      0.000000     -0.000000
  H       0.923148     -0.000000      0.000000
  H      -0.915741      0.000000      0.000000
>
3
Coordinates from ORCA-job scanHHH180_enhanced_0.1 Relaxed Surface Scan Step 46 E  -1.596450597514
  H       0.003704      0.000000     -0.000000
  H       0.923148     -0.000000      0.000000
  H      -0.926852     -0.000000      0.000000
>
3
Coordinates from ORCA-job scanHHH180_enhanced_0.1 Relaxed Surface Scan Step 47 E  -1.596517260104
  H       0.003704     -0.000000      0.000000
  H       0.923148      0.000000     -0.000000
  H      -0.937963      0.000000     -0.000000
>
3
Coordinates from ORCA-job scanHHH180_enhanced_0.1 Relaxed Surface Scan Step 48 E  -1.596567058236
  H       0.003704      0.000000     -0.000000
  H       0.923148     -0.000000      0.000000
  H      -0.949074     -0.000000      0.000000
>
3
Coordinates from ORCA-job scanHHH180_enhanced_0.1 Relaxed Surface Scan Step 49 E  -1.596602910243
  H       0.003704      0.000000     -0.000000
  H       0.923148     -0.000000      0.000000
  H      -0.960185      0.000000      0.000000
>
3
Coordinates from ORCA-job scanHHH180_enhanced_0.1 Relaxed Surface Scan Step 50 E  -1.596627457563
  H       0.003704      0.000000      0.000000
  H       0.923148     -0.000000     -0.000000
  H      -0.971296      0.000000     -0.000000
>
3
Coordinates from ORCA-job scanHHH180_enhanced_0.1 Relaxed Surface Scan Step 51 E  -1.596034212436
  H      -0.037037      0.000000     -0.000000
  H       0.893519     -0.000000      0.000000
  H      -0.912037     -0.000000      0.000000
>
3
Coordinates from ORCA-job scanHHH180_enhanced_0.1 Relaxed Surface Scan Step 52 E  -1.596187919670
  H       0.003704      0.000000     -0.000000
  H       0.934259     -0.000000      0.000000
  H      -0.882407      0.000000      0.000000
>
3
Coordinates from ORCA-job scanHHH180_enhanced_0.1 Relaxed Surface Scan Step 53 E  -1.596305515732
  H       0.003704      0.000000     -0.000000
  H       0.934259     -0.000000      0.000000
  H      -0.893518      0.000000      0.000000
>
3
Coordinates from ORCA-job scanHHH180_enhanced_0.1 Relaxed Surface Scan Step 54 E  -1.596391649372
  H       0.003704      0.000000     -0.000000
  H       0.934259     -0.000000      0.000000
  H      -0.904630      0.000000      0.000000
>
3
Coordinates from ORCA-job scanHHH180_enhanced_0.1 Relaxed Surface Scan Step 55 E  -1.596450597515
  H       0.003704      0.000000     -0.000000
  H       0.934259     -0.000000      0.000000
  H      -0.915741     -0.000000      0.000000
>
3
Coordinates from ORCA-job scanHHH180_enhanced_0.1 Relaxed Surface Scan Step 56 E  -1.596486282112
  H       0.003704     -0.000000      0.000000
  H       0.934259      0.000000     -0.000000
  H      -0.926852      0.000000     -0.000000
>
3
Coordinates from ORCA-job scanHHH180_enhanced_0.1 Relaxed Surface Scan Step 57 E  -1.596502290013
  H       0.003704      0.000000     -0.000000
  H       0.934259     -0.000000      0.000000
  H      -0.937963     -0.000000      0.000000
>
3
Coordinates from ORCA-job scanHHH180_enhanced_0.1 Relaxed Surface Scan Step 58 E  -1.596501891977
  H       0.003704      0.000000     -0.000000
  H       0.934259     -0.000000      0.000000
  H      -0.949074     -0.000000      0.000000
>
3
Coordinates from ORCA-job scanHHH180_enhanced_0.1 Relaxed Surface Scan Step 59 E  -1.596488061244
  H       0.003704     -0.000000      0.000000
  H       0.934259      0.000000     -0.000000
  H      -0.960185      0.000000     -0.000000
>
3
Coordinates from ORCA-job scanHHH180_enhanced_0.1 Relaxed Surface Scan Step 60 E  -1.596463491361
  H       0.003704     -0.000000      0.000000
  H       0.934259      0.000000     -0.000000
  H      -0.971296      0.000000     -0.000000
>
3
Coordinates from ORCA-job scanHHH180_enhanced_0.1 Relaxed Surface Scan Step 61 E  -1.596305735643
  H      -0.037037     -0.000000      0.000000
  H       0.904630      0.000000     -0.000000
  H      -0.912037      0.000000     -0.000000
>
3
Coordinates from ORCA-job scanHHH180_enhanced_0.1 Relaxed Surface Scan Step 62 E  -1.596408016100
  H       0.003704      0.000000     -0.000000
  H       0.945370     -0.000000      0.000000
  H      -0.882407      0.000000      0.000000
>
3
Coordinates from ORCA-job scanHHH180_enhanced_0.1 Relaxed Surface Scan Step 63 E  -1.596474284406
  H       0.003704      0.000000     -0.000000
  H       0.945370     -0.000000      0.000000
  H      -0.893518     -0.000000      0.000000
>
3
Coordinates from ORCA-job scanHHH180_enhanced_0.1 Relaxed Surface Scan Step 64 E  -1.596509252672
  H       0.003704      0.000000     -0.000000
  H       0.945370     -0.000000      0.000000
  H      -0.904630      0.000000      0.000000
>
3
Coordinates from ORCA-job scanHHH180_enhanced_0.1 Relaxed Surface Scan Step 65 E  -1.596517260105
  H       0.003704      0.000000     -0.000000
  H       0.945370     -0.000000      0.000000
  H      -0.915741      0.000000      0.000000
>
3
Coordinates from ORCA-job scanHHH180_enhanced_0.1 Relaxed Surface Scan Step 66 E  -1.596502290013
  H       0.003704      0.000000      0.000000
  H       0.945370     -0.000000     -0.000000
  H      -0.926852      0.000000     -0.000000
>
3
Coordinates from ORCA-job scanHHH180_enhanced_0.1 Relaxed Surface Scan Step 67 E  -1.596467989138
  H       0.003704      0.000000     -0.000000
  H       0.945370     -0.000000      0.000000
  H      -0.937963     -0.000000      0.000000
>
3
Coordinates from ORCA-job scanHHH180_enhanced_0.1 Relaxed Surface Scan Step 68 E  -1.596417686397
  H       0.003704     -0.000000      0.000000
  H       0.945370      0.000000     -0.000000
  H      -0.949074      0.000000     -0.000000
>
3
Coordinates from ORCA-job scanHHH180_enhanced_0.1 Relaxed Surface Scan Step 69 E  -1.596354411004
  H       0.003704     -0.000000      0.000000
  H       0.945370      0.000000     -0.000000
  H      -0.960185      0.000000     -0.000000
>
3
Coordinates from ORCA-job scanHHH180_enhanced_0.1 Relaxed Surface Scan Step 70 E  -1.596280909891
  H       0.003704      0.000000     -0.000000
  H       0.945370     -0.000000      0.000000
  H      -0.971296     -0.000000      0.000000
>
3
Coordinates from ORCA-job scanHHH180_enhanced_0.1 Relaxed Surface Scan Step 71 E  -1.596558013483
  H      -0.037037      0.000000     -0.000000
  H       0.915741     -0.000000      0.000000
  H      -0.912037      0.000000      0.000000
>
3
Coordinates from ORCA-job scanHHH180_enhanced_0.1 Relaxed Surface Scan Step 72 E  -1.596609543847
  H       0.003704      0.000000     -0.000000
  H       0.956481     -0.000000      0.000000
  H      -0.882407     -0.000000      0.000000
>
3
Coordinates from ORCA-job scanHHH180_enhanced_0.1 Relaxed Surface Scan Step 73 E  -1.596625107137
  H       0.003704      0.000000     -0.000000
  H       0.956481     -0.000000      0.000000
  H      -0.893518      0.000000      0.000000
>
3
Coordinates from ORCA-job scanHHH180_enhanced_0.1 Relaxed Surface Scan Step 74 E  -1.596609478194
  H       0.003704      0.000000     -0.000000
  H       0.956481     -0.000000      0.000000
  H      -0.904630     -0.000000      0.000000
>
3
Coordinates from ORCA-job scanHHH180_enhanced_0.1 Relaxed Surface Scan Step 75 E  -1.596567058236
  H       0.003704      0.000000     -0.000000
  H       0.956481     -0.000000      0.000000
  H      -0.915741     -0.000000      0.000000
>
3
Coordinates from ORCA-job scanHHH180_enhanced_0.1 Relaxed Surface Scan Step 76 E  -1.596501891978
  H       0.003704      0.000000     -0.000000
  H       0.956481     -0.000000      0.000000
  H      -0.926852      0.000000      0.000000
>
3
Coordinates from ORCA-job scanHHH180_enhanced_0.1 Relaxed Surface Scan Step 77 E  -1.596417686398
  H       0.003704      0.000000     -0.000000
  H       0.956481     -0.000000      0.000000
  H      -0.937963      0.000000      0.000000
>
3
Coordinates from ORCA-job scanHHH180_enhanced_0.1 Relaxed Surface Scan Step 78 E  -1.596317829192
  H       0.003704      0.000000     -0.000000
  H       0.956481     -0.000000      0.000000
  H      -0.949074      0.000000      0.000000
>
3
Coordinates from ORCA-job scanHHH180_enhanced_0.1 Relaxed Surface Scan Step 79 E  -1.596205406413
  H       0.003704      0.000000      0.000000
  H       0.956481     -0.000000     -0.000000
  H      -0.960185     -0.000000     -0.000000
>
3
Coordinates from ORCA-job scanHHH180_enhanced_0.1 Relaxed Surface Scan Step 80 E  -1.596083219473
  H       0.003704      0.000000     -0.000000
  H       0.956481     -0.000000      0.000000
  H      -0.971296      0.000000      0.000000
>
3
Coordinates from ORCA-job scanHHH180_enhanced_0.1 Relaxed Surface Scan Step 81 E  -1.596793759569
  H      -0.037037      0.000000      0.000000
  H       0.926852     -0.000000     -0.000000
  H      -0.912037      0.000000     -0.000000
>
3
Coordinates from ORCA-job scanHHH180_enhanced_0.1 Relaxed Surface Scan Step 82 E  -1.596795265041
  H       0.003704     -0.000000      0.000000
  H       0.967593      0.000000     -0.000000
  H      -0.882407      0.000000     -0.000000
>
3
Coordinates from ORCA-job scanHHH180_enhanced_0.1 Relaxed Surface Scan Step 83 E  -1.596760796489
  H       0.003704      0.000000     -0.000000
  H       0.967593     -0.000000      0.000000
  H      -0.893518     -0.000000      0.000000
>
3
Coordinates from ORCA-job scanHHH180_enhanced_0.1 Relaxed Surface Scan Step 84 E  -1.596695190643
  H       0.003704      0.000000     -0.000000
  H       0.967593     -0.000000      0.000000
  H      -0.904630     -0.000000      0.000000
>
3
Coordinates from ORCA-job scanHHH180_enhanced_0.1 Relaxed Surface Scan Step 85 E  -1.596602910244
  H       0.003704     -0.000000      0.000000
  H       0.967593      0.000000     -0.000000
  H      -0.915741      0.000000     -0.000000
>
3
Coordinates from ORCA-job scanHHH180_enhanced_0.1 Relaxed Surface Scan Step 86 E  -1.596488061245
  H       0.003704      0.000000     -0.000000
  H       0.967593     -0.000000      0.000000
  H      -0.926852     -0.000000      0.000000
>
3
Coordinates from ORCA-job scanHHH180_enhanced_0.1 Relaxed Surface Scan Step 87 E  -1.596354411004
  H       0.003704      0.000000     -0.000000
  H       0.967593     -0.000000      0.000000
  H      -0.937963     -0.000000      0.000000
>
3
Coordinates from ORCA-job scanHHH180_enhanced_0.1 Relaxed Surface Scan Step 88 E  -1.596205406414
  H       0.003704      0.000000      0.000000
  H       0.967593     -0.000000     -0.000000
  H      -0.949074      0.000000     -0.000000
>
3
Coordinates from ORCA-job scanHHH180_enhanced_0.1 Relaxed Surface Scan Step 89 E  -1.596044191045
  H       0.003704      0.000000      0.000000
  H       0.967593     -0.000000     -0.000000
  H      -0.960185      0.000000     -0.000000
>
3
Coordinates from ORCA-job scanHHH180_enhanced_0.1 Relaxed Surface Scan Step 90 E  -1.595873621690
  H       0.003704      0.000000      0.000000
  H       0.967593     -0.000000     -0.000000
  H      -0.971296      0.000000     -0.000000
>
3
Coordinates from ORCA-job scanHHH180_enhanced_0.1 Relaxed Surface Scan Step 91 E  -1.597015423671
  H      -0.037037     -0.000000      0.000000
  H       0.937963      0.000000     -0.000000
  H      -0.912037      0.000000     -0.000000
>
3
Coordinates from ORCA-job scanHHH180_enhanced_0.1 Relaxed Surface Scan Step 92 E  -1.596967674448
  H       0.003704      0.000000     -0.000000
  H       0.978704     -0.000000      0.000000
  H      -0.882407      0.000000      0.000000
>
3
Coordinates from ORCA-job scanHHH180_enhanced_0.1 Relaxed Surface Scan Step 93 E  -1.596883894308
  H       0.003704      0.000000      0.000000
  H       0.978704     -0.000000     -0.000000
  H      -0.893518      0.000000     -0.000000
>
3
Coordinates from ORCA-job scanHHH180_enhanced_0.1 Relaxed Surface Scan Step 94 E  -1.596768980821
  H       0.003704      0.000000      0.000000
  H       0.978704     -0.000000     -0.000000
  H      -0.904630      0.000000     -0.000000
>
3
Coordinates from ORCA-job scanHHH180_enhanced_0.1 Relaxed Surface Scan Step 95 E  -1.596627457564
  H       0.003704      0.000000     -0.000000
  H       0.978704     -0.000000      0.000000
  H      -0.915741      0.000000      0.000000
>
3
Coordinates from ORCA-job scanHHH180_enhanced_0.1 Relaxed Surface Scan Step 96 E  -1.596463491363
  H       0.003704      0.000000      0.000000
  H       0.978704     -0.000000     -0.000000
  H      -0.926852      0.000000     -0.000000
>
3
Coordinates from ORCA-job scanHHH180_enhanced_0.1 Relaxed Surface Scan Step 97 E  -1.596280909893
  H       0.003704      0.000000      0.000000
  H       0.978704     -0.000000     -0.000000
  H      -0.937963      0.000000     -0.000000
>
3
Coordinates from ORCA-job scanHHH180_enhanced_0.1 Relaxed Surface Scan Step 98 E  -1.596083219474
  H       0.003704      0.000000     -0.000000
  H       0.978704     -0.000000      0.000000
  H      -0.949074      0.000000      0.000000
>
3
Coordinates from ORCA-job scanHHH180_enhanced_0.1 Relaxed Surface Scan Step 99 E  -1.595873621692
  H       0.003704     -0.000000      0.000000
  H       0.978704      0.000000     -0.000000
  H      -0.960185      0.000000     -0.000000
>
3
Coordinates from ORCA-job scanHHH180_enhanced_0.1 Relaxed Surface Scan Step 100 E  -1.595655029452
  H       0.003704      0.000000     -0.000000
  H       0.978704     -0.000000      0.000000
  H      -0.971296     -0.000000      0.000000
